Program Version,EnergyPlus, Version 24.2.0-94a887817b, YMD=2025.04.27 17:46
1,5,Environment Title[],Latitude[deg],Longitude[deg],Time Zone[],Elevation[m]
2,8,Day of Simulation[],Month[],Day of Month[],DST Indicator[1=yes 0=no],Hour[],StartMinute[],EndMinute[],DayType
3,5,Cumulative Day of Simulation[],Month[],Day of Month[],DST Indicator[1=yes 0=no],DayType  ! When Daily Report Variables Requested
4,2,Cumulative Days of Simulation[],Month[]  ! When Monthly Report Variables Requested
5,1,Cumulative Days of Simulation[] ! When Run Period Report Variables Requested
6,1,Calendar Year of Simulation[] ! When Annual Report Variables Requested
7,1,Environment,Site Outdoor Air Drybulb Temperature [C] !TimeStep
8,1,RADIATOR,Electric Equipment Electricity Rate [W] !TimeStep
130,1,EAST WALL,Surface Outside Face Incident Solar Radiation Rate per Area [W/m2] !TimeStep
131,1,EAST WINDOW,Surface Window Transmitted Solar Radiation Rate [W] !TimeStep
132,1,EAST WALL,Surface Outside Face Solar Radiation Heat Gain Rate per Area [W/m2] !TimeStep
133,1,ZONE 1,Zone Mean Air Temperature [C] !TimeStep
415,1,HEAT INPUT,Schedule Value [] !TimeStep
End of Data Dictionary
1,RUN PERIOD 1,  55.63,  12.67,   1.00,   5.00
2,1, 1, 1, 0, 1, 0.00, 1.00,Sunday
7,5.131666666666666
8,300.0
130,0.0
131,0.0
132,0.0
133,23.026471552994895
415,0.0
2,1, 1, 1, 0, 1, 1.00, 2.00,Sunday
7,5.163333333333333
8,0.0
130,0.0
131,0.0
132,0.0
133,23.00365030991368
415,0.0
2,1, 1, 1, 0, 1, 2.00, 3.00,Sunday
7,5.194999999999999
8,0.0
130,0.0
131,0.0
132,0.0
133,22.981348529099986
415,0.0
2,1, 1, 1, 0, 1, 3.00, 4.00,Sunday
7,5.226666666666667
8,0.0
130,0.0
131,0.0
132,0.0
133,22.959634314509323
415,0.0
2,1, 1, 1, 0, 1, 4.00, 5.00,Sunday
7,5.258333333333333
8,0.0
130,0.0
131,0.0
132,0.0
133,22.93849469565063
415,0.0
2,1, 1, 1, 0, 1, 5.00, 6.00,Sunday
7,5.29
8,0.0
130,0.0
131,0.0
132,0.0
133,22.917926094457975
415,0.0
2,1, 1, 1, 0, 1, 6.00, 7.00,Sunday
7,5.321666666666666
8,0.0
130,0.0
131,0.0
132,0.0
133,22.897915118447198
415,0.0
2,1, 1, 1, 0, 1, 7.00, 8.00,Sunday
7,5.3533333333333335
8,0.0
130,0.0
131,0.0
132,0.0
133,22.878451455800622
415,0.0
2,1, 1, 1, 0, 1, 8.00, 9.00,Sunday
7,5.385
8,0.0
130,0.0
131,0.0
132,0.0
133,22.859524751319352
415,0.0
2,1, 1, 1, 0, 1, 9.00,10.00,Sunday
7,5.416666666666666
8,0.0
130,0.0
131,0.0
132,0.0
133,22.841124838270257
415,0.0
2,1, 1, 1, 0, 1,10.00,11.00,Sunday
7,5.448333333333333
8,0.0
130,0.0
131,0.0
132,0.0
133,22.823240477964323
415,0.0
2,1, 1, 1, 0, 1,11.00,12.00,Sunday
7,5.48
8,0.0
130,0.0
131,0.0
132,0.0
133,22.805861612376393
415,0.0
2,1, 1, 1, 0, 1,12.00,13.00,Sunday
7,5.511666666666667
8,0.0
130,0.0
131,0.0
132,0.0
133,22.788977002758514
415,0.0
2,1, 1, 1, 0, 1,13.00,14.00,Sunday
7,5.543333333333333
8,0.0
130,0.0
131,0.0
132,0.0
133,22.77257536187791
415,0.0
2,1, 1, 1, 0, 1,14.00,15.00,Sunday
7,5.574999999999999
8,0.0
130,0.0
131,0.0
132,0.0
133,22.756645045516084
415,0.0
2,1, 1, 1, 0, 1,15.00,16.00,Sunday
7,5.606666666666667
8,0.0
130,0.0
131,0.0
132,0.0
133,22.741174725191264
415,0.0
2,1, 1, 1, 0, 1,16.00,17.00,Sunday
7,5.638333333333334
8,0.0
130,0.0
131,0.0
132,0.0
133,22.726153276149823
415,0.0
2,1, 1, 1, 0, 1,17.00,18.00,Sunday
7,5.67
8,0.0
130,0.0
131,0.0
132,0.0
133,22.711569657491207
415,0.0
2,1, 1, 1, 0, 1,18.00,19.00,Sunday
7,5.701666666666666
8,0.0
130,0.0
131,0.0
132,0.0
133,22.697412559252555
415,0.0
2,1, 1, 1, 0, 1,19.00,20.00,Sunday
7,5.733333333333333
8,0.0
130,0.0
131,0.0
132,0.0
133,22.68367103524536
415,0.0
2,1, 1, 1, 0, 1,20.00,21.00,Sunday
7,5.765
8,0.0
130,0.0
131,0.0
132,0.0
133,22.67033407093183
415,0.0
2,1, 1, 1, 0, 1,21.00,22.00,Sunday
7,5.796666666666666
8,0.0
130,0.0
131,0.0
132,0.0
133,22.65739126998397
415,0.0
2,1, 1, 1, 0, 1,22.00,23.00,Sunday
7,5.828333333333333
8,0.0
130,0.0
131,0.0
132,0.0
133,22.64483204876709
415,0.0
2,1, 1, 1, 0, 1,23.00,24.00,Sunday
7,5.859999999999999
8,0.0
130,0.0
131,0.0
132,0.0
133,22.632646129569338
415,0.0
2,1, 1, 1, 0, 1,24.00,25.00,Sunday
7,5.891666666666666
8,0.0
130,0.0
131,0.0
132,0.0
133,22.62082322204774
415,0.0
2,1, 1, 1, 0, 1,25.00,26.00,Sunday
7,5.923333333333333
8,0.0
130,0.0
131,0.0
132,0.0
133,22.609353431155643
415,0.0
2,1, 1, 1, 0, 1,26.00,27.00,Sunday
7,5.955
8,0.0
130,0.0
131,0.0
132,0.0
133,22.598227043029606
415,0.0
2,1, 1, 1, 0, 1,27.00,28.00,Sunday
7,5.986666666666666
8,0.0
130,0.0
131,0.0
132,0.0
133,22.587434626278586
415,0.0
2,1, 1, 1, 0, 1,28.00,29.00,Sunday
7,6.018333333333333
8,0.0
130,0.0
131,0.0
132,0.0
133,22.57696670231362
415,0.0
2,1, 1, 1, 0, 1,29.00,30.00,Sunday
7,6.05
8,0.0
130,0.0
131,0.0
132,0.0
133,22.566814186945496
415,0.0
2,1, 1, 1, 0, 1,30.00,31.00,Sunday
7,6.081666666666667
8,0.0
130,0.0
131,0.0
132,0.0
133,22.556968019500772
415,0.0
2,1, 1, 1, 0, 1,31.00,32.00,Sunday
7,6.113333333333333
8,0.0
130,0.0
131,0.0
132,0.0
133,22.54741968082058
415,0.0
2,1, 1, 1, 0, 1,32.00,33.00,Sunday
7,6.145
8,0.0
130,0.0
131,0.0
132,0.0
133,22.5381605807533
415,0.0
2,1, 1, 1, 0, 1,33.00,34.00,Sunday
7,6.176666666666667
8,0.0
130,0.0
131,0.0
132,0.0
133,22.529182458851242
415,0.0
2,1, 1, 1, 0, 1,34.00,35.00,Sunday
7,6.208333333333334
8,0.0
130,0.0
131,0.0
132,0.0
133,22.520477085095983
415,0.0
2,1, 1, 1, 0, 1,35.00,36.00,Sunday
7,6.24
8,0.0
130,0.0
131,0.0
132,0.0
133,22.5120366038555
415,0.0
2,1, 1, 1, 0, 1,36.00,37.00,Sunday
7,6.2716666666666665
8,0.0
130,0.0
131,0.0
132,0.0
133,22.503853337199505
415,0.0
2,1, 1, 1, 0, 1,37.00,38.00,Sunday
7,6.303333333333334
8,0.0
130,0.0
131,0.0
132,0.0
133,22.495919876786157
415,0.0
2,1, 1, 1, 0, 1,38.00,39.00,Sunday
7,6.334999999999999
8,0.0
130,0.0
131,0.0
132,0.0
133,22.48822879615782
415,0.0
2,1, 1, 1, 0, 1,39.00,40.00,Sunday
7,6.366666666666666
8,0.0
130,0.0
131,0.0
132,0.0
133,22.48077302259199
415,0.0
2,1, 1, 1, 0, 1,40.00,41.00,Sunday
7,6.398333333333333
8,0.0
130,0.0
131,0.0
132,0.0
133,22.473545516592885
415,0.0
2,1, 1, 1, 0, 1,41.00,42.00,Sunday
7,6.43
8,0.0
130,0.0
131,0.0
132,0.0
133,22.466539722370474
415,0.0
2,1, 1, 1, 0, 1,42.00,43.00,Sunday
7,6.461666666666666
8,0.0
130,0.0
131,0.0
132,0.0
133,22.459749022676544
415,0.0
2,1, 1, 1, 0, 1,43.00,44.00,Sunday
7,6.493333333333333
8,0.0
130,0.0
131,0.0
132,0.0
133,22.453167081211152
415,0.0
2,1, 1, 1, 0, 1,44.00,45.00,Sunday
7,6.525
8,0.0
130,0.0
131,0.0
132,0.0
133,22.446787591435648
415,0.0
2,1, 1, 1, 0, 1,45.00,46.00,Sunday
7,6.556666666666667
8,0.0
130,0.0
131,0.0
132,0.0
133,22.440604565009032
415,0.0
2,1, 1, 1, 0, 1,46.00,47.00,Sunday
7,6.588333333333333
8,0.0
130,0.0
131,0.0
132,0.0
133,22.43461218322655
415,0.0
2,1, 1, 1, 0, 1,47.00,48.00,Sunday
7,6.62
8,0.0
130,0.0
131,0.0
132,0.0
133,22.428804840065226
415,0.0
2,1, 1, 1, 0, 1,48.00,49.00,Sunday
7,6.651666666666667
8,0.0
130,0.0
131,0.0
132,0.0
133,22.423176906019783
415,0.0
2,1, 1, 1, 0, 1,49.00,50.00,Sunday
7,6.683333333333334
8,0.0
130,0.0
131,0.0
132,0.0
133,22.4177230451874
415,0.0
2,1, 1, 1, 0, 1,50.00,51.00,Sunday
7,6.715
8,0.0
130,0.0
131,0.0
132,0.0
133,22.412437946104696
415,0.0
2,1, 1, 1, 0, 1,51.00,52.00,Sunday
7,6.746666666666666
8,0.0
130,0.0
131,0.0
132,0.0
133,22.40731671684993
415,0.0
2,1, 1, 1, 0, 1,52.00,53.00,Sunday
7,6.778333333333333
8,0.0
130,0.0
131,0.0
132,0.0
133,22.402354395474383
415,0.0
2,1, 1, 1, 0, 1,53.00,54.00,Sunday
7,6.81
8,0.0
130,0.0
131,0.0
132,0.0
133,22.397546241206168
415,0.0
2,1, 1, 1, 0, 1,54.00,55.00,Sunday
7,6.841666666666666
8,0.0
130,0.0
131,0.0
132,0.0
133,22.39288753199897
415,0.0
2,1, 1, 1, 0, 1,55.00,56.00,Sunday
7,6.873333333333333
8,0.0
130,0.0
131,0.0
132,0.0
133,22.38837380342211
415,0.0
2,1, 1, 1, 0, 1,56.00,57.00,Sunday
7,6.904999999999999
8,0.0
130,0.0
131,0.0
132,0.0
133,22.38400074383731
415,0.0
2,1, 1, 1, 0, 1,57.00,58.00,Sunday
7,6.9366666666666665
8,0.0
130,0.0
131,0.0
132,0.0
133,22.37976419751925
415,0.0
2,1, 1, 1, 0, 1,58.00,59.00,Sunday
7,6.968333333333333
8,0.0
130,0.0
131,0.0
132,0.0
133,22.375659975171235
415,0.0
2,1, 1, 1, 0, 1,59.00,60.00,Sunday
7,7.0
8,0.0
130,0.0
131,0.0
132,0.0
133,22.371684122548885
415,0.0
2,1, 1, 1, 0, 2, 0.00, 1.00,Sunday
7,7.001666666666666
8,0.0
130,0.0
131,0.0
132,0.0
133,22.36777497844401
415,0.0
2,1, 1, 1, 0, 2, 1.00, 2.00,Sunday
7,7.003333333333333
8,0.0
130,0.0
131,0.0
132,0.0
133,22.36392335539122
415,0.0
2,1, 1, 1, 0, 2, 2.00, 3.00,Sunday
7,7.004999999999999
8,0.0
130,0.0
131,0.0
132,0.0
133,22.360125909525575
415,0.0
2,1, 1, 1, 0, 2, 3.00, 4.00,Sunday
7,7.006666666666667
8,0.0
130,0.0
131,0.0
132,0.0
133,22.35638055238099
415,0.0
2,1, 1, 1, 0, 2, 4.00, 5.00,Sunday
7,7.008333333333333
8,0.0
130,0.0
131,0.0
132,0.0
133,22.352685556293345
415,0.0
2,1, 1, 1, 0, 2, 5.00, 6.00,Sunday
7,7.01
8,0.0
130,0.0
131,0.0
132,0.0
133,22.34903937688563
415,0.0
2,1, 1, 1, 0, 2, 6.00, 7.00,Sunday
7,7.011666666666667
8,0.0
130,0.0
131,0.0
132,0.0
133,22.34544057788403
415,0.0
2,1, 1, 1, 0, 2, 7.00, 8.00,Sunday
7,7.013333333333333
8,0.0
130,0.0
131,0.0
132,0.0
133,22.34188776879177
415,0.0
2,1, 1, 1, 0, 2, 8.00, 9.00,Sunday
7,7.015000000000001
8,0.0
130,0.0
131,0.0
132,0.0
133,22.338379533753766
415,0.0
2,1, 1, 1, 0, 2, 9.00,10.00,Sunday
7,7.0166666666666675
8,0.0
130,0.0
131,0.0
132,0.0
133,22.334914545907413
415,0.0
2,1, 1, 1, 0, 2,10.00,11.00,Sunday
7,7.0183333333333335
8,0.0
130,0.0
131,0.0
132,0.0
133,22.33149147624143
415,0.0
2,1, 1, 1, 0, 2,11.00,12.00,Sunday
7,7.0200000000000005
8,0.0
130,0.0
131,0.0
132,0.0
133,22.328109146944108
415,0.0
2,1, 1, 1, 0, 2,12.00,13.00,Sunday
7,7.0216666666666665
8,0.0
130,0.0
131,0.0
132,0.0
133,22.324766331300832
415,0.0
2,1, 1, 1, 0, 2,13.00,14.00,Sunday
7,7.0233333333333325
8,0.0
130,0.0
131,0.0
132,0.0
133,22.321461858926465
415,0.0
2,1, 1, 1, 0, 2,14.00,15.00,Sunday
7,7.025
8,0.0
130,0.0
131,0.0
132,0.0
133,22.318194554679256
415,0.0
2,1, 1, 1, 0, 2,15.00,16.00,Sunday
7,7.026666666666667
8,0.0
130,0.0
131,0.0
132,0.0
133,22.314963318574925
415,0.0
2,1, 1, 1, 0, 2,16.00,17.00,Sunday
7,7.028333333333333
8,0.0
130,0.0
131,0.0
132,0.0
133,22.311767103846012
415,0.0
2,1, 1, 1, 0, 2,17.00,18.00,Sunday
7,7.029999999999999
8,0.0
130,0.0
131,0.0
132,0.0
133,22.30860489587923
415,0.0
2,1, 1, 1, 0, 2,18.00,19.00,Sunday
7,7.031666666666666
8,0.0
130,0.0
131,0.0
132,0.0
133,22.305475654774085
415,0.0
2,1, 1, 1, 0, 2,19.00,20.00,Sunday
7,7.033333333333333
8,0.0
130,0.0
131,0.0
132,0.0
133,22.3023784077962
415,0.0
2,1, 1, 1, 0, 2,20.00,21.00,Sunday
7,7.035
8,0.0
130,0.0
131,0.0
132,0.0
133,22.29931217733542
415,0.0
2,1, 1, 1, 0, 2,21.00,22.00,Sunday
7,7.036666666666667
8,0.0
130,0.0
131,0.0
132,0.0
133,22.29627609833158
415,0.0
2,1, 1, 1, 0, 2,22.00,23.00,Sunday
7,7.038333333333333
8,0.0
130,0.0
131,0.0
132,0.0
133,22.293269267781035
415,0.0
2,1, 1, 1, 0, 2,23.00,24.00,Sunday
7,7.04
8,0.0
130,0.0
131,0.0
132,0.0
133,22.290290825659294
415,0.0
2,1, 1, 1, 0, 2,24.00,25.00,Sunday
7,7.041666666666666
8,0.0
130,0.0
131,0.0
132,0.0
133,22.287339906813358
415,0.0
2,1, 1, 1, 0, 2,25.00,26.00,Sunday
7,7.043333333333333
8,0.0
130,0.0
131,0.0
132,0.0
133,22.284415702831584
415,0.0
2,1, 1, 1, 0, 2,26.00,27.00,Sunday
7,7.045
8,0.0
130,0.0
131,0.0
132,0.0
133,22.281517442158716
415,0.0
2,1, 1, 1, 0, 2,27.00,28.00,Sunday
7,7.046666666666667
8,0.0
130,0.0
131,0.0
132,0.0
133,22.27864437895385
415,0.0
2,1, 1, 1, 0, 2,28.00,29.00,Sunday
7,7.048333333333333
8,0.0
130,0.0
131,0.0
132,0.0
133,22.275795747771973
415,0.0
2,1, 1, 1, 0, 2,29.00,30.00,Sunday
7,7.05
8,0.0
130,0.0
131,0.0
132,0.0
133,22.27297083405197
415,0.0
2,1, 1, 1, 0, 2,30.00,31.00,Sunday
7,7.051666666666666
8,0.0
130,0.0
131,0.0
132,0.0
133,22.270168918348478
415,0.0
2,1, 1, 1, 0, 2,31.00,32.00,Sunday
7,7.053333333333333
8,0.0
130,0.0
131,0.0
132,0.0
133,22.267389364274077
415,0.0
2,1, 1, 1, 0, 2,32.00,33.00,Sunday
7,7.055
8,0.0
130,0.0
131,0.0
132,0.0
133,22.264631507036178
415,0.0
2,1, 1, 1, 0, 2,33.00,34.00,Sunday
7,7.056666666666667
8,0.0
130,0.0
131,0.0
132,0.0
133,22.261894715396405
415,0.0
2,1, 1, 1, 0, 2,34.00,35.00,Sunday
7,7.058333333333334
8,0.0
130,0.0
131,0.0
132,0.0
133,22.259178352992087
415,0.0
2,1, 1, 1, 0, 2,35.00,36.00,Sunday
7,7.0600000000000005
8,0.0
130,0.0
131,0.0
132,0.0
133,22.256481826734507
415,0.0
2,1, 1, 1, 0, 2,36.00,37.00,Sunday
7,7.061666666666666
8,0.0
130,0.0
131,0.0
132,0.0
133,22.253804567842106
415,0.0
2,1, 1, 1, 0, 2,37.00,38.00,Sunday
7,7.063333333333333
8,0.0
130,0.0
131,0.0
132,0.0
133,22.251146028936407
415,0.0
2,1, 1, 1, 0, 2,38.00,39.00,Sunday
7,7.0649999999999995
8,0.0
130,0.0
131,0.0
132,0.0
133,22.24850564727287
415,0.0
2,1, 1, 1, 0, 2,39.00,40.00,Sunday
7,7.066666666666666
8,0.0
130,0.0
131,0.0
132,0.0
133,22.24588289909495
415,0.0
2,1, 1, 1, 0, 2,40.00,41.00,Sunday
7,7.068333333333333
8,0.0
130,0.0
131,0.0
132,0.0
133,22.243277255577553
415,0.0
2,1, 1, 1, 0, 2,41.00,42.00,Sunday
7,7.07
8,0.0
130,0.0
131,0.0
132,0.0
133,22.240688249096166
415,0.0
2,1, 1, 1, 0, 2,42.00,43.00,Sunday
7,7.071666666666666
8,0.0
130,0.0
131,0.0
132,0.0
133,22.23811539060732
415,0.0
2,1, 1, 1, 0, 2,43.00,44.00,Sunday
7,7.073333333333333
8,0.0
130,0.0
131,0.0
132,0.0
133,22.2355582178331
415,0.0
2,1, 1, 1, 0, 2,44.00,45.00,Sunday
7,7.074999999999999
8,0.0
130,0.0
131,0.0
132,0.0
133,22.233016263194678
415,0.0
2,1, 1, 1, 0, 2,45.00,46.00,Sunday
7,7.076666666666666
8,0.0
130,0.0
131,0.0
132,0.0
133,22.230489092530913
415,0.0
2,1, 1, 1, 0, 2,46.00,47.00,Sunday
7,7.078333333333333
8,0.0
130,0.0
131,0.0
132,0.0
133,22.227976286549016
415,0.0
2,1, 1, 1, 0, 2,47.00,48.00,Sunday
7,7.079999999999999
8,0.0
130,0.0
131,0.0
132,0.0
133,22.225477444260548
415,0.0
2,1, 1, 1, 0, 2,48.00,49.00,Sunday
7,7.081666666666666
8,0.0
130,0.0
131,0.0
132,0.0
133,22.22299215229572
415,0.0
2,1, 1, 1, 0, 2,49.00,50.00,Sunday
7,7.083333333333334
8,0.0
130,0.0
131,0.0
132,0.0
133,22.220520027557914
415,0.0
2,1, 1, 1, 0, 2,50.00,51.00,Sunday
7,7.084999999999999
8,0.0
130,0.0
131,0.0
132,0.0
133,22.218060681615768
415,0.0
2,1, 1, 1, 0, 2,51.00,52.00,Sunday
7,7.086666666666666
8,0.0
130,0.0
131,0.0
132,0.0
133,22.21561377129479
415,0.0
2,1, 1, 1, 0, 2,52.00,53.00,Sunday
7,7.088333333333333
8,0.0
130,0.0
131,0.0
132,0.0
133,22.213178936959064
415,0.0
2,1, 1, 1, 0, 2,53.00,54.00,Sunday
7,7.09
8,0.0
130,0.0
131,0.0
132,0.0
133,22.21075584073337
415,0.0
2,1, 1, 1, 0, 2,54.00,55.00,Sunday
7,7.091666666666667
8,0.0
130,0.0
131,0.0
132,0.0
133,22.20834413921398
415,0.0
2,1, 1, 1, 0, 2,55.00,56.00,Sunday
7,7.093333333333333
8,0.0
130,0.0
131,0.0
132,0.0
133,22.20594351518443
415,0.0
2,1, 1, 1, 0, 2,56.00,57.00,Sunday
7,7.095
8,0.0
130,0.0
131,0.0
132,0.0
133,22.203553659490016
415,0.0
2,1, 1, 1, 0, 2,57.00,58.00,Sunday
7,7.096666666666667
8,0.0
130,0.0
131,0.0
132,0.0
133,22.201174278872625
415,0.0
2,1, 1, 1, 0, 2,58.00,59.00,Sunday
7,7.098333333333333
8,0.0
130,0.0
131,0.0
132,0.0
133,22.198805069742363
415,0.0
2,1, 1, 1, 0, 2,59.00,60.00,Sunday
7,7.1
8,0.0
130,0.0
131,0.0
132,0.0
133,22.196445752385042
415,0.0
2,1, 1, 1, 0, 3, 0.00, 1.00,Sunday
7,7.101666666666666
8,0.0
130,0.0
131,0.0
132,0.0
133,22.194095957158925
415,0.0
2,1, 1, 1, 0, 3, 1.00, 2.00,Sunday
7,7.1033333333333335
8,0.0
130,0.0
131,0.0
132,0.0
133,22.191755397184615
415,0.0
2,1, 1, 1, 0, 3, 2.00, 3.00,Sunday
7,7.1049999999999995
8,0.0
130,0.0
131,0.0
132,0.0
133,22.18942380219839
415,0.0
2,1, 1, 1, 0, 3, 3.00, 4.00,Sunday
7,7.106666666666666
8,0.0
130,0.0
131,0.0
132,0.0
133,22.18710092608181
415,0.0
2,1, 1, 1, 0, 3, 4.00, 5.00,Sunday
7,7.1083333333333325
8,0.0
130,0.0
131,0.0
132,0.0
133,22.18478651920153
415,0.0
2,1, 1, 1, 0, 3, 5.00, 6.00,Sunday
7,7.109999999999999
8,0.0
130,0.0
131,0.0
132,0.0
133,22.182480353011908
415,0.0
2,1, 1, 1, 0, 3, 6.00, 7.00,Sunday
7,7.111666666666666
8,0.0
130,0.0
131,0.0
132,0.0
133,22.180182202478104
415,0.0
2,1, 1, 1, 0, 3, 7.00, 8.00,Sunday
7,7.113333333333333
8,0.0
130,0.0
131,0.0
132,0.0
133,22.177891856335517
415,0.0
2,1, 1, 1, 0, 3, 8.00, 9.00,Sunday
7,7.114999999999999
8,0.0
130,0.0
131,0.0
132,0.0
133,22.175609094581343
415,0.0
2,1, 1, 1, 0, 3, 9.00,10.00,Sunday
7,7.116666666666667
8,0.0
130,0.0
131,0.0
132,0.0
133,22.17333371610571
415,0.0
2,1, 1, 1, 0, 3,10.00,11.00,Sunday
7,7.118333333333332
8,0.0
130,0.0
131,0.0
132,0.0
133,22.171065514137748
415,0.0
2,1, 1, 1, 0, 3,11.00,12.00,Sunday
7,7.12
8,0.0
130,0.0
131,0.0
132,0.0
133,22.168804307277743
415,0.0
2,1, 1, 1, 0, 3,12.00,13.00,Sunday
7,7.121666666666666
8,0.0
130,0.0
131,0.0
132,0.0
133,22.166549903536694
415,0.0
2,1, 1, 1, 0, 3,13.00,14.00,Sunday
7,7.123333333333333
8,0.0
130,0.0
131,0.0
132,0.0
133,22.164302125802894
415,0.0
2,1, 1, 1, 0, 3,14.00,15.00,Sunday
7,7.124999999999999
8,0.0
130,0.0
131,0.0
132,0.0
133,22.162060791182128
415,0.0
2,1, 1, 1, 0, 3,15.00,16.00,Sunday
7,7.126666666666667
8,0.0
130,0.0
131,0.0
132,0.0
133,22.159825733495495
415,0.0
2,1, 1, 1, 0, 3,16.00,17.00,Sunday
7,7.128333333333333
8,0.0
130,0.0
131,0.0
132,0.0
133,22.157596786843193
415,0.0
2,1, 1, 1, 0, 3,17.00,18.00,Sunday
7,7.13
8,0.0
130,0.0
131,0.0
132,0.0
133,22.155373797343028
415,0.0
2,1, 1, 1, 0, 3,18.00,19.00,Sunday
7,7.131666666666666
8,0.0
130,0.0
131,0.0
132,0.0
133,22.15315660316466
415,0.0
2,1, 1, 1, 0, 3,19.00,20.00,Sunday
7,7.133333333333333
8,0.0
130,0.0
131,0.0
132,0.0
133,22.150945057956495
415,0.0
2,1, 1, 1, 0, 3,20.00,21.00,Sunday
7,7.135
8,0.0
130,0.0
131,0.0
132,0.0
133,22.148739009538332
415,0.0
2,1, 1, 1, 0, 3,21.00,22.00,Sunday
7,7.136666666666666
8,0.0
130,0.0
131,0.0
132,0.0
133,22.146538325696635
415,0.0
2,1, 1, 1, 0, 3,22.00,23.00,Sunday
7,7.138333333333334
8,0.0
130,0.0
131,0.0
132,0.0
133,22.14434286496491
415,0.0
2,1, 1, 1, 0, 3,23.00,24.00,Sunday
7,7.140000000000001
8,0.0
130,0.0
131,0.0
132,0.0
133,22.142152498491313
415,0.0
2,1, 1, 1, 0, 3,24.00,25.00,Sunday
7,7.141666666666666
8,0.0
130,0.0
131,0.0
132,0.0
133,22.13996709152655
415,0.0
2,1, 1, 1, 0, 3,25.00,26.00,Sunday
7,7.1433333333333335
8,0.0
130,0.0
131,0.0
132,0.0
133,22.137786523191807
415,0.0
2,1, 1, 1, 0, 3,26.00,27.00,Sunday
7,7.1450000000000005
8,0.0
130,0.0
131,0.0
132,0.0
133,22.135610671106996
415,0.0
2,1, 1, 1, 0, 3,27.00,28.00,Sunday
7,7.1466666666666665
8,0.0
130,0.0
131,0.0
132,0.0
133,22.133439423352705
415,0.0
2,1, 1, 1, 0, 3,28.00,29.00,Sunday
7,7.1483333333333325
8,0.0
130,0.0
131,0.0
132,0.0
133,22.131272660555013
415,0.0
2,1, 1, 1, 0, 3,29.00,30.00,Sunday
7,7.15
8,0.0
130,0.0
131,0.0
132,0.0
133,22.12911027629286
415,0.0
2,1, 1, 1, 0, 3,30.00,31.00,Sunday
7,7.151666666666667
8,0.0
130,0.0
131,0.0
132,0.0
133,22.126952158234612
415,0.0
2,1, 1, 1, 0, 3,31.00,32.00,Sunday
7,7.153333333333332
8,0.0
130,0.0
131,0.0
132,0.0
133,22.124798210423453
415,0.0
2,1, 1, 1, 0, 3,32.00,33.00,Sunday
7,7.154999999999999
8,0.0
130,0.0
131,0.0
132,0.0
133,22.122648328399414
415,0.0
2,1, 1, 1, 0, 3,33.00,34.00,Sunday
7,7.156666666666666
8,0.0
130,0.0
131,0.0
132,0.0
133,22.12050241849719
415,0.0
2,1, 1, 1, 0, 3,34.00,35.00,Sunday
7,7.158333333333333
8,0.0
130,0.0
131,0.0
132,0.0
133,22.11836038110185
415,0.0
2,1, 1, 1, 0, 3,35.00,36.00,Sunday
7,7.16
8,0.0
130,0.0
131,0.0
132,0.0
133,22.116222128358366
415,0.0
2,1, 1, 1, 0, 3,36.00,37.00,Sunday
7,7.161666666666667
8,0.0
130,0.0
131,0.0
132,0.0
133,22.114087570014437
415,0.0
2,1, 1, 1, 0, 3,37.00,38.00,Sunday
7,7.163333333333333
8,0.0
130,0.0
131,0.0
132,0.0
133,22.11195662486003
415,0.0
2,1, 1, 1, 0, 3,38.00,39.00,Sunday
7,7.165000000000001
8,0.0
130,0.0
131,0.0
132,0.0
133,22.109829204492474
415,0.0
2,1, 1, 1, 0, 3,39.00,40.00,Sunday
7,7.166666666666666
8,0.0
130,0.0
131,0.0
132,0.0
133,22.10770523158522
415,0.0
2,1, 1, 1, 0, 3,40.00,41.00,Sunday
7,7.168333333333333
8,0.0
130,0.0
131,0.0
132,0.0
133,22.10558462287429
415,0.0
2,1, 1, 1, 0, 3,41.00,42.00,Sunday
7,7.17
8,0.0
130,0.0
131,0.0
132,0.0
133,22.103467309160155
415,0.0
2,1, 1, 1, 0, 3,42.00,43.00,Sunday
7,7.171666666666667
8,0.0
130,0.0
131,0.0
132,0.0
133,22.101353213088544
415,0.0
2,1, 1, 1, 0, 3,43.00,44.00,Sunday
7,7.173333333333333
8,0.0
130,0.0
131,0.0
132,0.0
133,22.09924226661818
415,0.0
2,1, 1, 1, 0, 3,44.00,45.00,Sunday
7,7.175000000000001
8,0.0
130,0.0
131,0.0
132,0.0
133,22.097134395752416
415,0.0
2,1, 1, 1, 0, 3,45.00,46.00,Sunday
7,7.176666666666667
8,0.0
130,0.0
131,0.0
132,0.0
133,22.095029536680133
415,0.0
2,1, 1, 1, 0, 3,46.00,47.00,Sunday
7,7.178333333333333
8,0.0
130,0.0
131,0.0
132,0.0
133,22.092927622891903
415,0.0
2,1, 1, 1, 0, 3,47.00,48.00,Sunday
7,7.180000000000001
8,0.0
130,0.0
131,0.0
132,0.0
133,22.090828595637714
415,0.0
2,1, 1, 1, 0, 3,48.00,49.00,Sunday
7,7.181666666666667
8,0.0
130,0.0
131,0.0
132,0.0
133,22.08873238908866
415,0.0
2,1, 1, 1, 0, 3,49.00,50.00,Sunday
7,7.183333333333333
8,0.0
130,0.0
131,0.0
132,0.0
133,22.086638947088474
415,0.0
2,1, 1, 1, 0, 3,50.00,51.00,Sunday
7,7.1850000000000005
8,0.0
130,0.0
131,0.0
132,0.0
133,22.084548207559166
415,0.0
2,1, 1, 1, 0, 3,51.00,52.00,Sunday
7,7.1866666666666665
8,0.0
130,0.0
131,0.0
132,0.0
133,22.082460121055433
415,0.0
2,1, 1, 1, 0, 3,52.00,53.00,Sunday
7,7.1883333333333335
8,0.0
130,0.0
131,0.0
132,0.0
133,22.08037463007219
415,0.0
2,1, 1, 1, 0, 3,53.00,54.00,Sunday
7,7.19
8,0.0
130,0.0
131,0.0
132,0.0
133,22.0782916852014
415,0.0
2,1, 1, 1, 0, 3,54.00,55.00,Sunday
7,7.191666666666666
8,0.0
130,0.0
131,0.0
132,0.0
133,22.07621123110925
415,0.0
2,1, 1, 1, 0, 3,55.00,56.00,Sunday
7,7.193333333333334
8,0.0
130,0.0
131,0.0
132,0.0
133,22.07413322146368
415,0.0
2,1, 1, 1, 0, 3,56.00,57.00,Sunday
7,7.195
8,0.0
130,0.0
131,0.0
132,0.0
133,22.072057607310835
415,0.0
2,1, 1, 1, 0, 3,57.00,58.00,Sunday
7,7.196666666666666
8,0.0
130,0.0
131,0.0
132,0.0
133,22.06998434630992
415,0.0
2,1, 1, 1, 0, 3,58.00,59.00,Sunday
7,7.198333333333334
8,0.0
130,0.0
131,0.0
132,0.0
133,22.067913389067854
415,0.0
2,1, 1, 1, 0, 3,59.00,60.00,Sunday
7,7.2
8,0.0
130,0.0
131,0.0
132,0.0
133,22.06584469480558
415,0.0
2,1, 1, 1, 0, 4, 0.00, 1.00,Sunday
7,7.203333333333333
8,0.0
130,0.0
131,0.0
132,0.0
133,22.06378126677919
415,0.0
2,1, 1, 1, 0, 4, 1.00, 2.00,Sunday
7,7.206666666666667
8,0.0
130,0.0
131,0.0
132,0.0
133,22.061723330490786
415,0.0
2,1, 1, 1, 0, 4, 2.00, 3.00,Sunday
7,7.21
8,0.0
130,0.0
131,0.0
132,0.0
133,22.059670831535893
415,0.0
2,1, 1, 1, 0, 4, 3.00, 4.00,Sunday
7,7.213333333333334
8,0.0
130,0.0
131,0.0
132,0.0
133,22.057623664162406
415,0.0
2,1, 1, 1, 0, 4, 4.00, 5.00,Sunday
7,7.216666666666667
8,0.0
130,0.0
131,0.0
132,0.0
133,22.05558169642553
415,0.0
2,1, 1, 1, 0, 4, 5.00, 6.00,Sunday
7,7.220000000000001
8,0.0
130,0.0
131,0.0
132,0.0
133,22.053544804195514
415,0.0
2,1, 1, 1, 0, 4, 6.00, 7.00,Sunday
7,7.223333333333334
8,0.0
130,0.0
131,0.0
132,0.0
133,22.051512861910837
415,0.0
2,1, 1, 1, 0, 4, 7.00, 8.00,Sunday
7,7.226666666666667
8,0.0
130,0.0
131,0.0
132,0.0
133,22.049485752761203
415,0.0
2,1, 1, 1, 0, 4, 8.00, 9.00,Sunday
7,7.23
8,0.0
130,0.0
131,0.0
132,0.0
133,22.047463352296482
415,0.0
2,1, 1, 1, 0, 4, 9.00,10.00,Sunday
7,7.233333333333333
8,0.0
130,0.0
131,0.0
132,0.0
133,22.04544554875012
415,0.0
2,1, 1, 1, 0, 4,10.00,11.00,Sunday
7,7.236666666666666
8,0.0
130,0.0
131,0.0
132,0.0
133,22.043432224965706
415,0.0
2,1, 1, 1, 0, 4,11.00,12.00,Sunday
7,7.240000000000001
8,0.0
130,0.0
131,0.0
132,0.0
133,22.041423282436757
415,0.0
2,1, 1, 1, 0, 4,12.00,13.00,Sunday
7,7.243333333333333
8,0.0
130,0.0
131,0.0
132,0.0
133,22.039418613015346
415,0.0
2,1, 1, 1, 0, 4,13.00,14.00,Sunday
7,7.246666666666666
8,0.0
130,0.0
131,0.0
132,0.0
133,22.037418118362417
415,0.0
2,1, 1, 1, 0, 4,14.00,15.00,Sunday
7,7.25
8,0.0
130,0.0
131,0.0
132,0.0
133,22.035421694616204
415,0.0
2,1, 1, 1, 0, 4,15.00,16.00,Sunday
7,7.253333333333334
8,0.0
130,0.0
131,0.0
132,0.0
133,22.03342924960976
415,0.0
2,1, 1, 1, 0, 4,16.00,17.00,Sunday
7,7.256666666666667
8,0.0
130,0.0
131,0.0
132,0.0
133,22.03144069232357
415,0.0
2,1, 1, 1, 0, 4,17.00,18.00,Sunday
7,7.26
8,0.0
130,0.0
131,0.0
132,0.0
133,22.029455938651296
415,0.0
2,1, 1, 1, 0, 4,18.00,19.00,Sunday
7,7.263333333333334
8,0.0
130,0.0
131,0.0
132,0.0
133,22.02747489646888
415,0.0
2,1, 1, 1, 0, 4,19.00,20.00,Sunday
7,7.2666666666666675
8,0.0
130,0.0
131,0.0
132,0.0
133,22.025497484761114
415,0.0
2,1, 1, 1, 0, 4,20.00,21.00,Sunday
7,7.2700000000000005
8,0.0
130,0.0
131,0.0
132,0.0
133,22.0235236168156
415,0.0
2,1, 1, 1, 0, 4,21.00,22.00,Sunday
7,7.273333333333333
8,0.0
130,0.0
131,0.0
132,0.0
133,22.021553223736788
415,0.0
2,1, 1, 1, 0, 4,22.00,23.00,Sunday
7,7.276666666666667
8,0.0
130,0.0
131,0.0
132,0.0
133,22.019586226183144
415,0.0
2,1, 1, 1, 0, 4,23.00,24.00,Sunday
7,7.280000000000001
8,0.0
130,0.0
131,0.0
132,0.0
133,22.01427529277815
415,0.0
2,1, 1, 1, 0, 4,24.00,25.00,Sunday
7,7.283333333333333
8,0.0
130,0.0
131,0.0
132,0.0
133,22.009018224082403
415,0.0
2,1, 1, 1, 0, 4,25.00,26.00,Sunday
7,7.286666666666667
8,0.0
130,0.0
131,0.0
132,0.0
133,22.003845475961562
415,0.0
2,1, 1, 1, 0, 4,26.00,27.00,Sunday
7,7.290000000000001
8,0.0
130,0.0
131,0.0
132,0.0
133,21.998756682049905
415,0.0
2,1, 1, 1, 0, 4,27.00,28.00,Sunday
7,7.293333333333333
8,0.0
130,0.0
131,0.0
132,0.0
133,21.99375329843672
415,0.0
2,1, 1, 1, 0, 4,28.00,29.00,Sunday
7,7.296666666666667
8,0.0
130,0.0
131,0.0
132,0.0
133,21.988834842390986
415,0.0
2,1, 1, 1, 0, 4,29.00,30.00,Sunday
7,7.300000000000001
8,0.0
130,0.0
131,0.0
132,0.0
133,21.98400047851195
415,0.0
2,1, 1, 1, 0, 4,30.00,31.00,Sunday
7,7.303333333333333
8,0.0
130,0.0
131,0.0
132,0.0
133,21.979248442376253
415,0.0
2,1, 1, 1, 0, 4,31.00,32.00,Sunday
7,7.306666666666667
8,0.0
130,0.0
131,0.0
132,0.0
133,21.97457711898466
415,0.0
2,1, 1, 1, 0, 4,32.00,33.00,Sunday
7,7.3100000000000005
8,0.0
130,0.0
131,0.0
132,0.0
133,21.969984443197276
415,0.0
2,1, 1, 1, 0, 4,33.00,34.00,Sunday
7,7.3133333333333335
8,0.0
130,0.0
131,0.0
132,0.0
133,21.96546847450228
415,0.0
2,1, 1, 1, 0, 4,34.00,35.00,Sunday
7,7.316666666666667
8,0.0
130,0.0
131,0.0
132,0.0
133,21.96102706076456
415,0.0
2,1, 1, 1, 0, 4,35.00,36.00,Sunday
7,7.32
8,0.0
130,0.0
131,0.0
132,0.0
133,21.956658214579395
415,0.0
2,1, 1, 1, 0, 4,36.00,37.00,Sunday
7,7.323333333333333
8,0.0
130,0.0
131,0.0
132,0.0
133,21.952359859720794
415,0.0
2,1, 1, 1, 0, 4,37.00,38.00,Sunday
7,7.326666666666666
8,0.0
130,0.0
131,0.0
132,0.0
133,21.94813005095323
415,0.0
2,1, 1, 1, 0, 4,38.00,39.00,Sunday
7,7.33
8,0.0
130,0.0
131,0.0
132,0.0
133,21.943966757351305
415,0.0
2,1, 1, 1, 0, 4,39.00,40.00,Sunday
7,7.333333333333334
8,0.0
130,0.0
131,0.0
132,0.0
133,21.93986808970389
415,0.0
2,1, 1, 1, 0, 4,40.00,41.00,Sunday
7,7.336666666666666
8,0.0
130,0.0
131,0.0
132,0.0
133,21.935832105719914
415,0.0
2,1, 1, 1, 0, 4,41.00,42.00,Sunday
7,7.34
8,0.0
130,0.0
131,0.0
132,0.0
133,21.93185702523069
415,0.0
2,1, 1, 1, 0, 4,42.00,43.00,Sunday
7,7.343333333333334
8,0.0
130,0.0
131,0.0
132,0.0
133,21.927941009106647
415,0.0
2,1, 1, 1, 0, 4,43.00,44.00,Sunday
7,7.346666666666668
8,0.0
130,0.0
131,0.0
132,0.0
133,21.924082343094145
415,0.0
2,1, 1, 1, 0, 4,44.00,45.00,Sunday
7,7.3500000000000005
8,0.0
130,0.0
131,0.0
132,0.0
133,21.920279279031995
415,0.0
2,1, 1, 1, 0, 4,45.00,46.00,Sunday
7,7.3533333333333335
8,0.0
130,0.0
131,0.0
132,0.0
133,21.916530194859597
415,0.0
2,1, 1, 1, 0, 4,46.00,47.00,Sunday
7,7.356666666666667
8,0.0
130,0.0
131,0.0
132,0.0
133,21.91283345420446
415,0.0
2,1, 1, 1, 0, 4,47.00,48.00,Sunday
7,7.36
8,0.0
130,0.0
131,0.0
132,0.0
133,21.909187531500315
415,0.0
2,1, 1, 1, 0, 4,48.00,49.00,Sunday
7,7.363333333333334
8,0.0
130,0.0
131,0.0
132,0.0
133,21.905590863771906
415,0.0
2,1, 1, 1, 0, 4,49.00,50.00,Sunday
7,7.366666666666667
8,0.0
130,0.0
131,0.0
132,0.0
133,21.90204200226311
415,0.0
2,1, 1, 1, 0, 4,50.00,51.00,Sunday
7,7.37
8,0.0
130,0.0
131,0.0
132,0.0
133,21.898539474389324
415,0.0
2,1, 1, 1, 0, 4,51.00,52.00,Sunday
7,7.373333333333334
8,0.0
130,0.0
131,0.0
132,0.0
133,21.89508193414803
415,0.0
2,1, 1, 1, 0, 4,52.00,53.00,Sunday
7,7.376666666666667
8,0.0
130,0.0
131,0.0
132,0.0
133,21.891667998610174
415,0.0
2,1, 1, 1, 0, 4,53.00,54.00,Sunday
7,7.38
8,0.0
130,0.0
131,0.0
132,0.0
133,21.888296383319176
415,0.0
2,1, 1, 1, 0, 4,54.00,55.00,Sunday
7,7.383333333333334
8,0.0
130,0.0
131,0.0
132,0.0
133,21.88496577629285
415,0.0
2,1, 1, 1, 0, 4,55.00,56.00,Sunday
7,7.386666666666667
8,0.0
130,0.0
131,0.0
132,0.0
133,21.881674963691676
415,0.0
2,1, 1, 1, 0, 4,56.00,57.00,Sunday
7,7.390000000000001
8,0.0
130,0.0
131,0.0
132,0.0
133,21.87842273937259
415,0.0
2,1, 1, 1, 0, 4,57.00,58.00,Sunday
7,7.3933333333333335
8,0.0
130,0.0
131,0.0
132,0.0
133,21.875207968253825
415,0.0
2,1, 1, 1, 0, 4,58.00,59.00,Sunday
7,7.3966666666666665
8,0.0
130,0.0
131,0.0
132,0.0
133,21.872029487897063
415,0.0
2,1, 1, 1, 0, 4,59.00,60.00,Sunday
7,7.4
8,0.0
130,0.0
131,0.0
132,0.0
133,21.868886226074395
415,0.0
2,1, 1, 1, 0, 5, 0.00, 1.00,Sunday
7,7.403333333333333
8,0.0
130,0.0
131,0.0
132,0.0
133,21.86577674976314
415,0.0
2,1, 1, 1, 0, 5, 1.00, 2.00,Sunday
7,7.406666666666666
8,0.0
130,0.0
131,0.0
132,0.0
133,21.862700094550107
415,0.0
2,1, 1, 1, 0, 5, 2.00, 3.00,Sunday
7,7.41
8,0.0
130,0.0
131,0.0
132,0.0
133,21.859655250762255
415,0.0
2,1, 1, 1, 0, 5, 3.00, 4.00,Sunday
7,7.413333333333334
8,0.0
130,0.0
131,0.0
132,0.0
133,21.856641278492003
415,0.0
2,1, 1, 1, 0, 5, 4.00, 5.00,Sunday
7,7.416666666666666
8,0.0
130,0.0
131,0.0
132,0.0
133,21.853657221322226
415,0.0
2,1, 1, 1, 0, 5, 5.00, 6.00,Sunday
7,7.42
8,0.0
130,0.0
131,0.0
132,0.0
133,21.85070219412718
415,0.0
2,1, 1, 1, 0, 5, 6.00, 7.00,Sunday
7,7.423333333333334
8,0.0
130,0.0
131,0.0
132,0.0
133,21.847775319528704
415,0.0
2,1, 1, 1, 0, 5, 7.00, 8.00,Sunday
7,7.426666666666668
8,0.0
130,0.0
131,0.0
132,0.0
133,21.84487577963558
415,0.0
2,1, 1, 1, 0, 5, 8.00, 9.00,Sunday
7,7.43
8,0.0
130,0.0
131,0.0
132,0.0
133,21.842002725996842
415,0.0
2,1, 1, 1, 0, 5, 9.00,10.00,Sunday
7,7.433333333333334
8,0.0
130,0.0
131,0.0
132,0.0
133,21.83915537670071
415,0.0
2,1, 1, 1, 0, 5,10.00,11.00,Sunday
7,7.436666666666667
8,0.0
130,0.0
131,0.0
132,0.0
133,21.83633293576676
415,0.0
2,1, 1, 1, 0, 5,11.00,12.00,Sunday
7,7.440000000000001
8,0.0
130,0.0
131,0.0
132,0.0
133,21.83353469496442
415,0.0
2,1, 1, 1, 0, 5,12.00,13.00,Sunday
7,7.443333333333333
8,0.0
130,0.0
131,0.0
132,0.0
133,21.830759914976245
415,0.0
2,1, 1, 1, 0, 5,13.00,14.00,Sunday
7,7.446666666666666
8,0.0
130,0.0
131,0.0
132,0.0
133,21.828007905395705
415,0.0