Program Version,EnergyPlus, Version 24.2.0-94a887817b, YMD=2025.04.30 21:03
1,5,Environment Title[],Latitude[deg],Longitude[deg],Time Zone[],Elevation[m]
2,8,Day of Simulation[],Month[],Day of Month[],DST Indicator[1=yes 0=no],Hour[],StartMinute[],EndMinute[],DayType
3,5,Cumulative Day of Simulation[],Month[],Day of Month[],DST Indicator[1=yes 0=no],DayType  ! When Daily Report Variables Requested
4,2,Cumulative Days of Simulation[],Month[]  ! When Monthly Report Variables Requested
5,1,Cumulative Days of Simulation[] ! When Run Period Report Variables Requested
6,1,Calendar Year of Simulation[] ! When Annual Report Variables Requested
7,1,Environment,Site Outdoor Air Drybulb Temperature [C] !TimeStep
8,1,RADIATOR,Electric Equipment Electricity Rate [W] !TimeStep
130,1,EAST WALL,Surface Outside Face Incident Solar Radiation Rate per Area [W/m2] !TimeStep
131,1,EAST WINDOW,Surface Window Transmitted Solar Radiation Rate [W] !TimeStep
132,1,EAST WALL,Surface Outside Face Solar Radiation Heat Gain Rate per Area [W/m2] !TimeStep
133,1,ZONE 1,Zone Mean Air Temperature [C] !TimeStep
415,1,HEAT INPUT,Schedule Value [] !TimeStep
End of Data Dictionary
1,RUN PERIOD 1,  55.63,  12.67,   1.00,   5.00
2,1, 1, 1, 0, 1, 0.00, 1.00,Sunday
7,5.131666666666666
8,300.0
130,0.0
131,0.0
132,0.0
133,23.029056151291392
415,0.0
2,1, 1, 1, 0, 1, 1.00, 2.00,Sunday
7,5.163333333333333
8,0.0
130,0.0
131,0.0
132,0.0
133,23.00623123412999
415,0.0
2,1, 1, 1, 0, 1, 2.00, 3.00,Sunday
7,5.194999999999999
8,0.0
130,0.0
131,0.0
132,0.0
133,22.98392591526873
415,0.0
2,1, 1, 1, 0, 1, 3.00, 4.00,Sunday
7,5.226666666666667
8,0.0
130,0.0
131,0.0
132,0.0
133,22.962208326661315
415,0.0
2,1, 1, 1, 0, 1, 4.00, 5.00,Sunday
7,5.258333333333333
8,0.0
130,0.0
131,0.0
132,0.0
133,22.94106547613339
415,0.0
2,1, 1, 1, 0, 1, 5.00, 6.00,Sunday
7,5.29
8,0.0
130,0.0
131,0.0
132,0.0
133,22.920493771896275
415,0.0
2,1, 1, 1, 0, 1, 6.00, 7.00,Sunday
7,5.321666666666666
8,0.0
130,0.0
131,0.0
132,0.0
133,22.90047979860254
415,0.0
2,1, 1, 1, 0, 1, 7.00, 8.00,Sunday
7,5.3533333333333335
8,0.0
130,0.0
131,0.0
132,0.0
133,22.88101323190275
415,0.0
2,1, 1, 1, 0, 1, 8.00, 9.00,Sunday
7,5.385
8,0.0
130,0.0
131,0.0
132,0.0
133,22.86208370803619
415,0.0
2,1, 1, 1, 0, 1, 9.00,10.00,Sunday
7,5.416666666666666
8,0.0
130,0.0
131,0.0
132,0.0
133,22.843681052871094
415,0.0
2,1, 1, 1, 0, 1,10.00,11.00,Sunday
7,5.448333333333333
8,0.0
130,0.0
131,0.0
132,0.0
133,22.825794020813508
415,0.0
2,1, 1, 1, 0, 1,11.00,12.00,Sunday
7,5.48
8,0.0
130,0.0
131,0.0
132,0.0
133,22.80841254856408
415,0.0
2,1, 1, 1, 0, 1,12.00,13.00,Sunday
7,5.511666666666667
8,0.0
130,0.0
131,0.0
132,0.0
133,22.791525391806772
415,0.0
2,1, 1, 1, 0, 1,13.00,14.00,Sunday
7,5.543333333333333
8,0.0
130,0.0
131,0.0
132,0.0
133,22.775121258190374
415,0.0
2,1, 1, 1, 0, 1,14.00,15.00,Sunday
7,5.574999999999999
8,0.0
130,0.0
131,0.0
132,0.0
133,22.75918849868866
415,0.0
2,1, 1, 1, 0, 1,15.00,16.00,Sunday
7,5.606666666666667
8,0.0
130,0.0
131,0.0
132,0.0
133,22.743715780569506
415,0.0
2,1, 1, 1, 0, 1,16.00,17.00,Sunday
7,5.638333333333334
8,0.0
130,0.0
131,0.0
132,0.0
133,22.728691975324555
415,0.0
2,1, 1, 1, 0, 1,17.00,18.00,Sunday
7,5.67
8,0.0
130,0.0
131,0.0
132,0.0
133,22.714106038533423
415,0.0
2,1, 1, 1, 0, 1,18.00,19.00,Sunday
7,5.701666666666666
8,0.0
130,0.0
131,0.0
132,0.0
133,22.699946656794022
415,0.0
2,1, 1, 1, 0, 1,19.00,20.00,Sunday
7,5.733333333333333
8,0.0
130,0.0
131,0.0
132,0.0
133,22.686202880885602
415,0.0
2,1, 1, 1, 0, 1,20.00,21.00,Sunday
7,5.765
8,0.0
130,0.0
131,0.0
132,0.0
133,22.672863693355634
415,0.0
2,1, 1, 1, 0, 1,21.00,22.00,Sunday
7,5.796666666666666
8,0.0
130,0.0
131,0.0
132,0.0
133,22.659918695516204
415,0.0
2,1, 1, 1, 0, 1,22.00,23.00,Sunday
7,5.828333333333333
8,0.0
130,0.0
131,0.0
132,0.0
133,22.64735730129765
415,0.0
2,1, 1, 1, 0, 1,23.00,24.00,Sunday
7,5.859999999999999
8,0.0
130,0.0
131,0.0
132,0.0
133,22.63516923080523
415,0.0
2,1, 1, 1, 0, 1,24.00,25.00,Sunday
7,5.891666666666666
8,0.0
130,0.0
131,0.0
132,0.0
133,22.623344191563508
415,0.0
2,1, 1, 1, 0, 1,25.00,26.00,Sunday
7,5.923333333333333
8,0.0
130,0.0
131,0.0
132,0.0
133,22.61187228668022
415,0.0
2,1, 1, 1, 0, 1,26.00,27.00,Sunday
7,5.955
8,0.0
130,0.0
131,0.0
132,0.0
133,22.60074380067906
415,0.0
2,1, 1, 1, 0, 1,27.00,28.00,Sunday
7,5.986666666666666
8,0.0
130,0.0
131,0.0
132,0.0
133,22.58994930066778
415,0.0
2,1, 1, 1, 0, 1,28.00,29.00,Sunday
7,6.018333333333333
8,0.0
130,0.0
131,0.0
132,0.0
133,22.579479306491123
415,0.0
2,1, 1, 1, 0, 1,29.00,30.00,Sunday
7,6.05
8,0.0
130,0.0
131,0.0
132,0.0
133,22.569324732634342
415,0.0
2,1, 1, 1, 0, 1,30.00,31.00,Sunday
7,6.081666666666667
8,0.0
130,0.0
131,0.0
132,0.0
133,22.55947651708817
415,0.0
2,1, 1, 1, 0, 1,31.00,32.00,Sunday
7,6.113333333333333
8,0.0
130,0.0
131,0.0
132,0.0
133,22.549926139805834
415,0.0
2,1, 1, 1, 0, 1,32.00,33.00,Sunday
7,6.145
8,0.0
130,0.0
131,0.0
132,0.0
133,22.54066500956551
415,0.0
2,1, 1, 1, 0, 1,33.00,34.00,Sunday
7,6.176666666666667
8,0.0
130,0.0
131,0.0
132,0.0
133,22.53168486497765
415,0.0
2,1, 1, 1, 0, 1,34.00,35.00,Sunday
7,6.208333333333334
8,0.0
130,0.0
131,0.0
132,0.0
133,22.52297747504772
415,0.0
2,1, 1, 1, 0, 1,35.00,36.00,Sunday
7,6.24
8,0.0
130,0.0
131,0.0
132,0.0
133,22.514534983358892
415,0.0
2,1, 1, 1, 0, 1,36.00,37.00,Sunday
7,6.2716666666666665
8,0.0
130,0.0
131,0.0
132,0.0
133,22.506349711396926
415,0.0
2,1, 1, 1, 0, 1,37.00,38.00,Sunday
7,6.303333333333334
8,0.0
130,0.0
131,0.0
132,0.0
133,22.498414250246043
415,0.0
2,1, 1, 1, 0, 1,38.00,39.00,Sunday
7,6.334999999999999
8,0.0
130,0.0
131,0.0
132,0.0
133,22.490721172740074
415,0.0
2,1, 1, 1, 0, 1,39.00,40.00,Sunday
7,6.366666666666666
8,0.0
130,0.0
131,0.0
132,0.0
133,22.483263405616103
415,0.0
2,1, 1, 1, 0, 1,40.00,41.00,Sunday
7,6.398333333333333
8,0.0
130,0.0
131,0.0
132,0.0
133,22.476033908782206
415,0.0
2,1, 1, 1, 0, 1,41.00,42.00,Sunday
7,6.43
8,0.0
130,0.0
131,0.0
132,0.0
133,22.469026126262673
415,0.0
2,1, 1, 1, 0, 1,42.00,43.00,Sunday
7,6.461666666666666
8,0.0
130,0.0
131,0.0
132,0.0
133,22.46223344038866
415,0.0
2,1, 1, 1, 0, 1,43.00,44.00,Sunday
7,6.493333333333333
8,0.0
130,0.0
131,0.0
132,0.0
133,22.455649514501847
415,0.0
2,1, 1, 1, 0, 1,44.00,45.00,Sunday
7,6.525
8,0.0
130,0.0
131,0.0
132,0.0
133,22.44926804164071
415,0.0
2,1, 1, 1, 0, 1,45.00,46.00,Sunday
7,6.556666666666667
8,0.0
130,0.0
131,0.0
132,0.0
133,22.443083033182315
415,0.0
2,1, 1, 1, 0, 1,46.00,47.00,Sunday
7,6.588333333333333
8,0.0
130,0.0
131,0.0
132,0.0
133,22.43708867033102
415,0.0
2,1, 1, 1, 0, 1,47.00,48.00,Sunday
7,6.62
8,0.0
130,0.0
131,0.0
132,0.0
133,22.431279346929347
415,0.0
2,1, 1, 1, 0, 1,48.00,49.00,Sunday
7,6.651666666666667
8,0.0
130,0.0
131,0.0
132,0.0
133,22.425649433178506
415,0.0
2,1, 1, 1, 0, 1,49.00,50.00,Sunday
7,6.683333333333334
8,0.0
130,0.0
131,0.0
132,0.0
133,22.420193593009603
415,0.0
2,1, 1, 1, 0, 1,50.00,51.00,Sunday
7,6.715
8,0.0
130,0.0
131,0.0
132,0.0
133,22.414906514721995
415,0.0
2,1, 1, 1, 0, 1,51.00,52.00,Sunday
7,6.746666666666666
8,0.0
130,0.0
131,0.0
132,0.0
133,22.40978330653375
415,0.0
2,1, 1, 1, 0, 1,52.00,53.00,Sunday
7,6.778333333333333
8,0.0
130,0.0
131,0.0
132,0.0
133,22.404819006386713
415,0.0
2,1, 1, 1, 0, 1,53.00,54.00,Sunday
7,6.81
8,0.0
130,0.0
131,0.0
132,0.0
133,22.400008873426703
415,0.0
2,1, 1, 1, 0, 1,54.00,55.00,Sunday
7,6.841666666666666
8,0.0
130,0.0
131,0.0
132,0.0
133,22.395348185450814
415,0.0
2,1, 1, 1, 0, 1,55.00,56.00,Sunday
7,6.873333333333333
8,0.0
130,0.0
131,0.0
132,0.0
133,22.390832477981895
415,0.0
2,1, 1, 1, 0, 1,56.00,57.00,Sunday
7,6.904999999999999
8,0.0
130,0.0
131,0.0
132,0.0
133,22.38645743951435
415,0.0
2,1, 1, 1, 0, 1,57.00,58.00,Sunday
7,6.9366666666666665
8,0.0
130,0.0
131,0.0
132,0.0
133,22.38221891438728
415,0.0
2,1, 1, 1, 0, 1,58.00,59.00,Sunday
7,6.968333333333333
8,0.0
130,0.0
131,0.0
132,0.0
133,22.378112713205667
415,0.0
2,1, 1, 1, 0, 1,59.00,60.00,Sunday
7,7.0
8,0.0
130,0.0
131,0.0
132,0.0
133,22.37413488172875
415,0.0
2,1, 1, 1, 0, 2, 0.00, 1.00,Sunday
7,7.001666666666666
8,0.0
130,0.0
131,0.0
132,0.0
133,22.370223757946384
415,0.0
2,1, 1, 1, 0, 2, 1.00, 2.00,Sunday
7,7.003333333333333
8,0.0
130,0.0
131,0.0
132,0.0
133,22.36637015475538
415,0.0
2,1, 1, 1, 0, 2, 2.00, 3.00,Sunday
7,7.004999999999999
8,0.0
130,0.0
131,0.0
132,0.0
133,22.36257072849435
415,0.0
2,1, 1, 1, 0, 2, 3.00, 4.00,Sunday
7,7.006666666666667
8,0.0
130,0.0
131,0.0
132,0.0
133,22.358823390902096
415,0.0
2,1, 1, 1, 0, 2, 4.00, 5.00,Sunday
7,7.008333333333333
8,0.0
130,0.0
131,0.0
132,0.0
133,22.355126414445976
415,0.0
2,1, 1, 1, 0, 2, 5.00, 6.00,Sunday
7,7.01
8,0.0
130,0.0
131,0.0
132,0.0
133,22.3514782549517
415,0.0
2,1, 1, 1, 0, 2, 6.00, 7.00,Sunday
7,7.011666666666667
8,0.0
130,0.0
131,0.0
132,0.0
133,22.34787747647679
415,0.0
2,1, 1, 1, 0, 2, 7.00, 8.00,Sunday
7,7.013333333333333
8,0.0
130,0.0
131,0.0
132,0.0
133,22.344322688785965
415,0.0
2,1, 1, 1, 0, 2, 8.00, 9.00,Sunday
7,7.015000000000001
8,0.0
130,0.0
131,0.0
132,0.0
133,22.340812476138908
415,0.0
2,1, 1, 1, 0, 2, 9.00,10.00,Sunday
7,7.0166666666666675
8,0.0
130,0.0
131,0.0
132,0.0
133,22.337345511856046
415,0.0
2,1, 1, 1, 0, 2,10.00,11.00,Sunday
7,7.0183333333333335
8,0.0
130,0.0
131,0.0
132,0.0
133,22.33392046703523
415,0.0
2,1, 1, 1, 0, 2,11.00,12.00,Sunday
7,7.0200000000000005
8,0.0
130,0.0
131,0.0
132,0.0
133,22.330536164227482
415,0.0
2,1, 1, 1, 0, 2,12.00,13.00,Sunday
7,7.0216666666666665
8,0.0
130,0.0
131,0.0
132,0.0
133,22.32719137688089
415,0.0
2,1, 1, 1, 0, 2,13.00,14.00,Sunday
7,7.0233333333333325
8,0.0
130,0.0
131,0.0
132,0.0
133,22.32388493477409
415,0.0
2,1, 1, 1, 0, 2,14.00,15.00,Sunday
7,7.025
8,0.0
130,0.0
131,0.0
132,0.0
133,22.320615662857538
415,0.0
2,1, 1, 1, 0, 2,15.00,16.00,Sunday
7,7.026666666666667
8,0.0
130,0.0
131,0.0
132,0.0
133,22.317382461303396
415,0.0
2,1, 1, 1, 0, 2,16.00,17.00,Sunday
7,7.028333333333333
8,0.0
130,0.0
131,0.0
132,0.0
133,22.314184283605314
415,0.0
2,1, 1, 1, 0, 2,17.00,18.00,Sunday
7,7.029999999999999
8,0.0
130,0.0
131,0.0
132,0.0
133,22.311020115355696
415,0.0
2,1, 1, 1, 0, 2,18.00,19.00,Sunday
7,7.031666666666666
8,0.0
130,0.0
131,0.0
132,0.0
133,22.30788891673048
415,0.0
2,1, 1, 1, 0, 2,19.00,20.00,Sunday
7,7.033333333333333
8,0.0
130,0.0
131,0.0
132,0.0
133,22.30478971513386
415,0.0
2,1, 1, 1, 0, 2,20.00,21.00,Sunday
7,7.035
8,0.0
130,0.0
131,0.0
132,0.0
133,22.301721533027237
415,0.0
2,1, 1, 1, 0, 2,21.00,22.00,Sunday
7,7.036666666666667
8,0.0
130,0.0
131,0.0
132,0.0
133,22.298683505645176
415,0.0
2,1, 1, 1, 0, 2,22.00,23.00,Sunday
7,7.038333333333333
8,0.0
130,0.0
131,0.0
132,0.0
133,22.29567473010234
415,0.0
2,1, 1, 1, 0, 2,23.00,24.00,Sunday
7,7.04
8,0.0
130,0.0
131,0.0
132,0.0
133,22.29269434649672
415,0.0
2,1, 1, 1, 0, 2,24.00,25.00,Sunday
7,7.041666666666666
8,0.0
130,0.0
131,0.0
132,0.0
133,22.289741489732663
415,0.0
2,1, 1, 1, 0, 2,25.00,26.00,Sunday
7,7.043333333333333
8,0.0
130,0.0
131,0.0
132,0.0
133,22.286815351515095
415,0.0
2,1, 1, 1, 0, 2,26.00,27.00,Sunday
7,7.045
8,0.0
130,0.0
131,0.0
132,0.0
133,22.28391516049531
415,0.0
2,1, 1, 1, 0, 2,27.00,28.00,Sunday
7,7.046666666666667
8,0.0
130,0.0
131,0.0
132,0.0
133,22.281040170993233
415,0.0
2,1, 1, 1, 0, 2,28.00,29.00,Sunday
7,7.048333333333333
8,0.0
130,0.0
131,0.0
132,0.0
133,22.278189617608465
415,0.0
2,1, 1, 1, 0, 2,29.00,30.00,Sunday
7,7.05
8,0.0
130,0.0
131,0.0
132,0.0
133,22.27536278588217
415,0.0
2,1, 1, 1, 0, 2,30.00,31.00,Sunday
7,7.051666666666666
8,0.0
130,0.0
131,0.0
132,0.0
133,22.27255895640958
415,0.0
2,1, 1, 1, 0, 2,31.00,32.00,Sunday
7,7.053333333333333
8,0.0
130,0.0
131,0.0
132,0.0
133,22.269777493045044
415,0.0
2,1, 1, 1, 0, 2,32.00,33.00,Sunday
7,7.055
8,0.0
130,0.0
131,0.0
132,0.0
133,22.267017731078333
415,0.0
2,1, 1, 1, 0, 2,33.00,34.00,Sunday
7,7.056666666666667
8,0.0
130,0.0
131,0.0
132,0.0
133,22.264279039359245
415,0.0
2,1, 1, 1, 0, 2,34.00,35.00,Sunday
7,7.058333333333334
8,0.0
130,0.0
131,0.0
132,0.0
133,22.261560781552593
415,0.0
2,1, 1, 1, 0, 2,35.00,36.00,Sunday
7,7.0600000000000005
8,0.0
130,0.0
131,0.0
132,0.0
133,22.25886236465217
415,0.0
2,1, 1, 1, 0, 2,36.00,37.00,Sunday
7,7.061666666666666
8,0.0
130,0.0
131,0.0
132,0.0
133,22.256183220038174
415,0.0
2,1, 1, 1, 0, 2,37.00,38.00,Sunday
7,7.063333333333333
8,0.0
130,0.0
131,0.0
132,0.0
133,22.253522800454657
415,0.0
2,1, 1, 1, 0, 2,38.00,39.00,Sunday
7,7.0649999999999995
8,0.0
130,0.0
131,0.0
132,0.0
133,22.25088054317285
415,0.0
2,1, 1, 1, 0, 2,39.00,40.00,Sunday
7,7.066666666666666
8,0.0
130,0.0
131,0.0
132,0.0
133,22.24825592450619
415,0.0
2,1, 1, 1, 0, 2,40.00,41.00,Sunday
7,7.068333333333333
8,0.0
130,0.0
131,0.0
132,0.0
133,22.245648415642194
415,0.0
2,1, 1, 1, 0, 2,41.00,42.00,Sunday
7,7.07
8,0.0
130,0.0
131,0.0
132,0.0
133,22.243057549154468
415,0.0
2,1, 1, 1, 0, 2,42.00,43.00,Sunday
7,7.071666666666666
8,0.0
130,0.0
131,0.0
132,0.0
133,22.240482836051385
415,0.0
2,1, 1, 1, 0, 2,43.00,44.00,Sunday
7,7.073333333333333
8,0.0
130,0.0
131,0.0
132,0.0
133,22.2379238141143
415,0.0
2,1, 1, 1, 0, 2,44.00,45.00,Sunday
7,7.074999999999999
8,0.0
130,0.0
131,0.0
132,0.0
133,22.235380015767262
415,0.0
2,1, 1, 1, 0, 2,45.00,46.00,Sunday
7,7.076666666666666
8,0.0
130,0.0
131,0.0
132,0.0
133,22.232851006904493
415,0.0
2,1, 1, 1, 0, 2,46.00,47.00,Sunday
7,7.078333333333333
8,0.0
130,0.0
131,0.0
132,0.0
133,22.230336368361012
415,0.0
2,1, 1, 1, 0, 2,47.00,48.00,Sunday
7,7.079999999999999
8,0.0
130,0.0
131,0.0
132,0.0
133,22.227835699241947
415,0.0
2,1, 1, 1, 0, 2,48.00,49.00,Sunday
7,7.081666666666666
8,0.0
130,0.0
131,0.0
132,0.0
133,22.22534858617172
415,0.0
2,1, 1, 1, 0, 2,49.00,50.00,Sunday
7,7.083333333333334
8,0.0
130,0.0
131,0.0
132,0.0
133,22.22287464609955
415,0.0
2,1, 1, 1, 0, 2,50.00,51.00,Sunday
7,7.084999999999999
8,0.0
130,0.0
131,0.0
132,0.0
133,22.220413490585887
415,0.0
2,1, 1, 1, 0, 2,51.00,52.00,Sunday
7,7.086666666666666
8,0.0
130,0.0
131,0.0
132,0.0
133,22.217964776621805
415,0.0
2,1, 1, 1, 0, 2,52.00,53.00,Sunday
7,7.088333333333333
8,0.0
130,0.0
131,0.0
132,0.0
133,22.215528144600007
415,0.0
2,1, 1, 1, 0, 2,53.00,54.00,Sunday
7,7.09
8,0.0
130,0.0
131,0.0
132,0.0
133,22.21310325668179
415,0.0
2,1, 1, 1, 0, 2,54.00,55.00,Sunday
7,7.091666666666667
8,0.0
130,0.0
131,0.0
132,0.0
133,22.210689769446372
415,0.0
2,1, 1, 1, 0, 2,55.00,56.00,Sunday
7,7.093333333333333
8,0.0
130,0.0
131,0.0
132,0.0
133,22.20828736571009
415,0.0
2,1, 1, 1, 0, 2,56.00,57.00,Sunday
7,7.095
8,0.0
130,0.0
131,0.0
132,0.0
133,22.205895736418526
415,0.0
2,1, 1, 1, 0, 2,57.00,58.00,Sunday
7,7.096666666666667
8,0.0
130,0.0
131,0.0
132,0.0
133,22.20351458838235
415,0.0
2,1, 1, 1, 0, 2,58.00,59.00,Sunday
7,7.098333333333333
8,0.0
130,0.0
131,0.0
132,0.0
133,22.20114361798644
415,0.0
2,1, 1, 1, 0, 2,59.00,60.00,Sunday
7,7.1
8,0.0
130,0.0
131,0.0
132,0.0
133,22.198782545540556
415,0.0
2,1, 1, 1, 0, 3, 0.00, 1.00,Sunday
7,7.101666666666666
8,0.0
130,0.0
131,0.0
132,0.0
133,22.19643100139027
415,0.0
2,1, 1, 1, 0, 3, 1.00, 2.00,Sunday
7,7.1033333333333335
8,0.0
130,0.0
131,0.0
132,0.0
133,22.19408869880015
415,0.0
2,1, 1, 1, 0, 3, 2.00, 3.00,Sunday
7,7.1049999999999995
8,0.0
130,0.0
131,0.0
132,0.0
133,22.191755367515626
415,0.0
2,1, 1, 1, 0, 3, 3.00, 4.00,Sunday
7,7.106666666666666
8,0.0
130,0.0
131,0.0
132,0.0
133,22.189430761434256
415,0.0
2,1, 1, 1, 0, 3, 4.00, 5.00,Sunday
7,7.1083333333333325
8,0.0
130,0.0
131,0.0
132,0.0
133,22.187114630887436
415,0.0
2,1, 1, 1, 0, 3, 5.00, 6.00,Sunday
7,7.109999999999999
8,0.0
130,0.0
131,0.0
132,0.0
133,22.18480674734195
415,0.0
2,1, 1, 1, 0, 3, 6.00, 7.00,Sunday
7,7.111666666666666
8,0.0
130,0.0
131,0.0
132,0.0
133,22.182506885839885
415,0.0
2,1, 1, 1, 0, 3, 7.00, 8.00,Sunday
7,7.113333333333333
8,0.0
130,0.0
131,0.0
132,0.0
133,22.18021483516378
415,0.0
2,1, 1, 1, 0, 3, 8.00, 9.00,Sunday
7,7.114999999999999
8,0.0
130,0.0
131,0.0
132,0.0
133,22.177930375268435
415,0.0
2,1, 1, 1, 0, 3, 9.00,10.00,Sunday
7,7.116666666666667
8,0.0
130,0.0
131,0.0
132,0.0
133,22.175653305048776
415,0.0
2,1, 1, 1, 0, 3,10.00,11.00,Sunday
7,7.118333333333332
8,0.0
130,0.0
131,0.0
132,0.0
133,22.173383417689966
415,0.0
2,1, 1, 1, 0, 3,11.00,12.00,Sunday
7,7.12
8,0.0
130,0.0
131,0.0
132,0.0
133,22.171120531906936
415,0.0
2,1, 1, 1, 0, 3,12.00,13.00,Sunday
7,7.121666666666666
8,0.0
130,0.0
131,0.0
132,0.0
133,22.168864455701407
415,0.0
2,1, 1, 1, 0, 3,13.00,14.00,Sunday
7,7.123333333333333
8,0.0
130,0.0
131,0.0
132,0.0
133,22.166615011960303
415,0.0
2,1, 1, 1, 0, 3,14.00,15.00,Sunday
7,7.124999999999999
8,0.0
130,0.0
131,0.0
132,0.0
133,22.164372017739943
415,0.0
2,1, 1, 1, 0, 3,15.00,16.00,Sunday
7,7.126666666666667
8,0.0
130,0.0
131,0.0
132,0.0
133,22.162135306858232
415,0.0
2,1, 1, 1, 0, 3,16.00,17.00,Sunday
7,7.128333333333333
8,0.0
130,0.0
131,0.0
132,0.0
133,22.159904713475623
415,0.0
2,1, 1, 1, 0, 3,17.00,18.00,Sunday
7,7.13
8,0.0
130,0.0
131,0.0
132,0.0
133,22.1576800837417
415,0.0
2,1, 1, 1, 0, 3,18.00,19.00,Sunday
7,7.131666666666666
8,0.0
130,0.0
131,0.0
132,0.0
133,22.155461255772575
415,0.0
2,1, 1, 1, 0, 3,19.00,20.00,Sunday
7,7.133333333333333
8,0.0
130,0.0
131,0.0
132,0.0
133,22.15324808320898
415,0.0
2,1, 1, 1, 0, 3,20.00,21.00,Sunday
7,7.135
8,0.0
130,0.0
131,0.0
132,0.0
133,22.15104041381712
415,0.0
2,1, 1, 1, 0, 3,21.00,22.00,Sunday
7,7.136666666666666
8,0.0
130,0.0
131,0.0
132,0.0
133,22.148838115483883
415,0.0
2,1, 1, 1, 0, 3,22.00,23.00,Sunday
7,7.138333333333334
8,0.0
130,0.0
131,0.0
132,0.0
133,22.146641046724262
415,0.0
2,1, 1, 1, 0, 3,23.00,24.00,Sunday
7,7.140000000000001
8,0.0
130,0.0
131,0.0
132,0.0
133,22.144449078675557
415,0.0
2,1, 1, 1, 0, 3,24.00,25.00,Sunday
7,7.141666666666666
8,0.0
130,0.0
131,0.0
132,0.0
133,22.14226207653201
415,0.0
2,1, 1, 1, 0, 3,25.00,26.00,Sunday
7,7.1433333333333335
8,0.0
130,0.0
131,0.0
132,0.0
133,22.140079919403092
415,0.0
2,1, 1, 1, 0, 3,26.00,27.00,Sunday
7,7.1450000000000005
8,0.0
130,0.0
131,0.0
132,0.0
133,22.137902484959948
415,0.0
2,1, 1, 1, 0, 3,27.00,28.00,Sunday
7,7.1466666666666665
8,0.0
130,0.0
131,0.0
132,0.0
133,22.135729661306073
415,0.0
2,1, 1, 1, 0, 3,28.00,29.00,Sunday
7,7.1483333333333325
8,0.0
130,0.0
131,0.0
132,0.0
133,22.13356132900809
415,0.0
2,1, 1, 1, 0, 3,29.00,30.00,Sunday
7,7.15
8,0.0
130,0.0
131,0.0
132,0.0
133,22.13139738162948
415,0.0
2,1, 1, 1, 0, 3,30.00,31.00,Sunday
7,7.151666666666667
8,0.0
130,0.0
131,0.0
132,0.0
133,22.129237706778984
415,0.0
2,1, 1, 1, 0, 3,31.00,32.00,Sunday
7,7.153333333333332
8,0.0
130,0.0
131,0.0
132,0.0
133,22.12708220858993
415,0.0
2,1, 1, 1, 0, 3,32.00,33.00,Sunday
7,7.154999999999999
8,0.0
130,0.0
131,0.0
132,0.0
133,22.12493078257678
415,0.0
2,1, 1, 1, 0, 3,33.00,34.00,Sunday
7,7.156666666666666
8,0.0
130,0.0
131,0.0
132,0.0
133,22.122783335055143
415,0.0
2,1, 1, 1, 0, 3,34.00,35.00,Sunday
7,7.158333333333333
8,0.0
130,0.0
131,0.0
132,0.0
133,22.120639766347182
415,0.0
2,1, 1, 1, 0, 3,35.00,36.00,Sunday
7,7.16
8,0.0
130,0.0
131,0.0
132,0.0
133,22.11849998857791
415,0.0
2,1, 1, 1, 0, 3,36.00,37.00,Sunday
7,7.161666666666667
8,0.0
130,0.0
131,0.0
132,0.0
133,22.116363911538173
415,0.0
2,1, 1, 1, 0, 3,37.00,38.00,Sunday
7,7.163333333333333
8,0.0
130,0.0
131,0.0
132,0.0
133,22.114231454032687
415,0.0
2,1, 1, 1, 0, 3,38.00,39.00,Sunday
7,7.165000000000001
8,0.0
130,0.0
131,0.0
132,0.0
133,22.11210252759416
415,0.0
2,1, 1, 1, 0, 3,39.00,40.00,Sunday
7,7.166666666666666
8,0.0
130,0.0
131,0.0
132,0.0
133,22.109977054874353
415,0.0
2,1, 1, 1, 0, 3,40.00,41.00,Sunday
7,7.168333333333333
8,0.0
130,0.0
131,0.0
132,0.0
133,22.107854952545974
415,0.0
2,1, 1, 1, 0, 3,41.00,42.00,Sunday
7,7.17
8,0.0
130,0.0
131,0.0
132,0.0
133,22.10573615149339
415,0.0
2,1, 1, 1, 0, 3,42.00,43.00,Sunday
7,7.171666666666667
8,0.0
130,0.0
131,0.0
132,0.0
133,22.103620574334077
415,0.0
2,1, 1, 1, 0, 3,43.00,44.00,Sunday
7,7.173333333333333
8,0.0
130,0.0
131,0.0
132,0.0
133,22.10150815300451
415,0.0
2,1, 1, 1, 0, 3,44.00,45.00,Sunday
7,7.175000000000001
8,0.0
130,0.0
131,0.0
132,0.0
133,22.099398813444164
415,0.0
2,1, 1, 1, 0, 3,45.00,46.00,Sunday
7,7.176666666666667
8,0.0
130,0.0
131,0.0
132,0.0
133,22.09729249181974
415,0.0
2,1, 1, 1, 0, 3,46.00,47.00,Sunday
7,7.178333333333333
8,0.0
130,0.0
131,0.0
132,0.0
133,22.095189121663193
415,0.0
2,1, 1, 1, 0, 3,47.00,48.00,Sunday
7,7.180000000000001
8,0.0
130,0.0
131,0.0
132,0.0
133,22.093088644236794
415,0.0
2,1, 1, 1, 0, 3,48.00,49.00,Sunday
7,7.181666666666667
8,0.0
130,0.0
131,0.0
132,0.0
133,22.090990993646553
415,0.0
2,1, 1, 1, 0, 3,49.00,50.00,Sunday
7,7.183333333333333
8,0.0
130,0.0
131,0.0
132,0.0
133,22.088896113712234
415,0.0
2,1, 1, 1, 0, 3,50.00,51.00,Sunday
7,7.1850000000000005
8,0.0
130,0.0
131,0.0
132,0.0
133,22.086803942291574
415,0.0
2,1, 1, 1, 0, 3,51.00,52.00,Sunday
7,7.1866666666666665
8,0.0
130,0.0
131,0.0
132,0.0
133,22.08471443001923
415,0.0
2,1, 1, 1, 0, 3,52.00,53.00,Sunday
7,7.1883333333333335
8,0.0
130,0.0
131,0.0
132,0.0
133,22.082627519359953
415,0.0
2,1, 1, 1, 0, 3,53.00,54.00,Sunday
7,7.19
8,0.0
130,0.0
131,0.0
132,0.0
133,22.08054316088012
415,0.0
2,1, 1, 1, 0, 3,54.00,55.00,Sunday
7,7.191666666666666
8,0.0
130,0.0
131,0.0
132,0.0
133,22.078461299180095
415,0.0
2,1, 1, 1, 0, 3,55.00,56.00,Sunday
7,7.193333333333334
8,0.0
130,0.0
131,0.0
132,0.0
133,22.076381887902013
415,0.0
2,1, 1, 1, 0, 3,56.00,57.00,Sunday
7,7.195
8,0.0
130,0.0
131,0.0
132,0.0
133,22.07430487813036
415,0.0
2,1, 1, 1, 0, 3,57.00,58.00,Sunday
7,7.196666666666666
8,0.0
130,0.0
131,0.0
132,0.0
133,22.07223022753267
415,0.0
2,1, 1, 1, 0, 3,58.00,59.00,Sunday
7,7.198333333333334
8,0.0
130,0.0
131,0.0
132,0.0
133,22.070157886648747
415,0.0
2,1, 1, 1, 0, 3,59.00,60.00,Sunday
7,7.2
8,0.0
130,0.0
131,0.0
132,0.0
133,22.06808781467207
415,0.0
2,1, 1, 1, 0, 4, 0.00, 1.00,Sunday
7,7.203333333333333
8,0.0
130,0.0
131,0.0
132,0.0
133,22.066023014831448
415,0.0
2,1, 1, 1, 0, 4, 1.00, 2.00,Sunday
7,7.206666666666667
8,0.0
130,0.0
131,0.0
132,0.0
133,22.06396371269948
415,0.0
2,1, 1, 1, 0, 4, 2.00, 3.00,Sunday
7,7.21
8,0.0
130,0.0
131,0.0
132,0.0
133,22.061909853830738
415,0.0
2,1, 1, 1, 0, 4, 3.00, 4.00,Sunday
7,7.213333333333334
8,0.0
130,0.0
131,0.0
132,0.0
133,22.05986133243569
415,0.0
2,1, 1, 1, 0, 4, 4.00, 5.00,Sunday
7,7.216666666666667
8,0.0
130,0.0
131,0.0
132,0.0
133,22.057818016493353
415,0.0
2,1, 1, 1, 0, 4, 5.00, 6.00,Sunday
7,7.220000000000001
8,0.0
130,0.0
131,0.0
132,0.0
133,22.05577978183699
415,0.0
2,1, 1, 1, 0, 4, 6.00, 7.00,Sunday
7,7.223333333333334
8,0.0
130,0.0
131,0.0
132,0.0
133,22.053746502934317
415,0.0
2,1, 1, 1, 0, 4, 7.00, 8.00,Sunday
7,7.226666666666667
8,0.0
130,0.0
131,0.0
132,0.0
133,22.051718062972707
415,0.0
2,1, 1, 1, 0, 4, 8.00, 9.00,Sunday
7,7.23
8,0.0
130,0.0
131,0.0
132,0.0
133,22.049694337425244
415,0.0
2,1, 1, 1, 0, 4, 9.00,10.00,Sunday
7,7.233333333333333
8,0.0
130,0.0
131,0.0
132,0.0
133,22.04767521448706
415,0.0
2,1, 1, 1, 0, 4,10.00,11.00,Sunday
7,7.236666666666666
8,0.0
130,0.0
131,0.0
132,0.0
133,22.04566057692595
415,0.0
2,1, 1, 1, 0, 4,11.00,12.00,Sunday
7,7.240000000000001
8,0.0
130,0.0
131,0.0
132,0.0
133,22.04365032630162
415,0.0
2,1, 1, 1, 0, 4,12.00,13.00,Sunday
7,7.243333333333333
8,0.0
130,0.0
131,0.0
132,0.0
133,22.041644354424914
415,0.0
2,1, 1, 1, 0, 4,13.00,14.00,Sunday
7,7.246666666666666
8,0.0
130,0.0
131,0.0
132,0.0
133,22.039642562917624
415,0.0
2,1, 1, 1, 0, 4,14.00,15.00,Sunday
7,7.25
8,0.0
130,0.0
131,0.0
132,0.0
133,22.03764484784177
415,0.0
2,1, 1, 1, 0, 4,15.00,16.00,Sunday
7,7.253333333333334
8,0.0
130,0.0
131,0.0
132,0.0
133,22.03565111699203
415,0.0
2,1, 1, 1, 0, 4,16.00,17.00,Sunday
7,7.256666666666667
8,0.0
130,0.0
131,0.0
132,0.0
133,22.03366127937859
415,0.0
2,1, 1, 1, 0, 4,17.00,18.00,Sunday
7,7.26
8,0.0
130,0.0
131,0.0
132,0.0
133,22.031675250892267
415,0.0
2,1, 1, 1, 0, 4,18.00,19.00,Sunday
7,7.263333333333334
8,0.0
130,0.0
131,0.0
132,0.0
133,22.02969293933394
415,0.0
2,1, 1, 1, 0, 4,19.00,20.00,Sunday
7,7.2666666666666675
8,0.0
130,0.0
131,0.0
132,0.0
133,22.02771426365096
415,0.0
2,1, 1, 1, 0, 4,20.00,21.00,Sunday
7,7.2700000000000005
8,0.0
130,0.0
131,0.0
132,0.0
133,22.025739137058242
415,0.0
2,1, 1, 1, 0, 4,21.00,22.00,Sunday
7,7.273333333333333
8,0.0
130,0.0
131,0.0
132,0.0
133,22.02376749072827
415,0.0
2,1, 1, 1, 0, 4,22.00,23.00,Sunday
7,7.276666666666667
8,0.0
130,0.0
131,0.0
132,0.0
133,22.021799245282466
415,0.0
2,1, 1, 1, 0, 4,23.00,24.00,Sunday
7,7.280000000000001
8,0.0
130,0.0
131,0.0
132,0.0
133,22.016486582014565
415,0.0
2,1, 1, 1, 0, 4,24.00,25.00,Sunday
7,7.283333333333333
8,0.0
130,0.0
131,0.0
132,0.0
133,22.011227803176972
415,0.0
2,1, 1, 1, 0, 4,25.00,26.00,Sunday
7,7.286666666666667
8,0.0
130,0.0
131,0.0
132,0.0
133,22.006053370202622
415,0.0
2,1, 1, 1, 0, 4,26.00,27.00,Sunday
7,7.290000000000001
8,0.0
130,0.0
131,0.0
132,0.0
133,22.00096291538473
415,0.0
2,1, 1, 1, 0, 4,27.00,28.00,Sunday
7,7.293333333333333
8,0.0
130,0.0
131,0.0
132,0.0
133,21.995957894566548
415,0.0
2,1, 1, 1, 0, 4,28.00,29.00,Sunday
7,7.296666666666667
8,0.0
130,0.0
131,0.0
132,0.0
133,21.99103782449921
415,0.0
2,1, 1, 1, 0, 4,29.00,30.00,Sunday
7,7.300000000000001
8,0.0
130,0.0
131,0.0
132,0.0
133,21.986201869284862
415,0.0
2,1, 1, 1, 0, 4,30.00,31.00,Sunday
7,7.303333333333333
8,0.0
130,0.0
131,0.0
132,0.0
133,21.981448263798
415,0.0
2,1, 1, 1, 0, 4,31.00,32.00,Sunday
7,7.306666666666667
8,0.0
130,0.0
131,0.0
132,0.0
133,21.97677539251055
415,0.0
2,1, 1, 1, 0, 4,32.00,33.00,Sunday
7,7.3100000000000005
8,0.0
130,0.0
131,0.0
132,0.0
133,21.972181189585058
415,0.0
2,1, 1, 1, 0, 4,33.00,34.00,Sunday
7,7.3133333333333335
8,0.0
130,0.0
131,0.0
132,0.0
133,21.967663713865836
415,0.0
2,1, 1, 1, 0, 4,34.00,35.00,Sunday
7,7.316666666666667
8,0.0
130,0.0
131,0.0
132,0.0
133,21.963220812509153
415,0.0
2,1, 1, 1, 0, 4,35.00,36.00,Sunday
7,7.32
8,0.0
130,0.0
131,0.0
132,0.0
133,21.958850497484676
415,0.0
2,1, 1, 1, 0, 4,36.00,37.00,Sunday
7,7.323333333333333
8,0.0
130,0.0
131,0.0
132,0.0
133,21.954550691987063
415,0.0
2,1, 1, 1, 0, 4,37.00,38.00,Sunday
7,7.326666666666666
8,0.0
130,0.0
131,0.0
132,0.0
133,21.950319450217524
415,0.0
2,1, 1, 1, 0, 4,38.00,39.00,Sunday
7,7.33
8,0.0
130,0.0
131,0.0
132,0.0
133,21.946154740616613
415,0.0
2,1, 1, 1, 0, 4,39.00,40.00,Sunday
7,7.333333333333334
8,0.0
130,0.0
131,0.0
132,0.0
133,21.942054673415726
415,0.0
2,1, 1, 1, 0, 4,40.00,41.00,Sunday
7,7.336666666666666
8,0.0
130,0.0
131,0.0
132,0.0
133,21.93801730573197
415,0.0
2,1, 1, 1, 0, 4,41.00,42.00,Sunday
7,7.34
8,0.0
130,0.0
131,0.0
132,0.0
133,21.934040856976967
415,0.0
2,1, 1, 1, 0, 4,42.00,43.00,Sunday
7,7.343333333333334
8,0.0
130,0.0
131,0.0
132,0.0
133,21.930123487501763
415,0.0
2,1, 1, 1, 0, 4,43.00,44.00,Sunday
7,7.346666666666668
8,0.0
130,0.0
131,0.0
132,0.0
133,21.926263482570597
415,0.0
2,1, 1, 1, 0, 4,44.00,45.00,Sunday
7,7.3500000000000005
8,0.0
130,0.0
131,0.0
132,0.0
133,21.922459093507847
415,0.0
2,1, 1, 1, 0, 4,45.00,46.00,Sunday
7,7.3533333333333335
8,0.0
130,0.0
131,0.0
132,0.0
133,21.91870869780704
415,0.0
2,1, 1, 1, 0, 4,46.00,47.00,Sunday
7,7.356666666666667
8,0.0
130,0.0
131,0.0
132,0.0
133,21.915010658723325
415,0.0
2,1, 1, 1, 0, 4,47.00,48.00,Sunday
7,7.36
8,0.0
130,0.0
131,0.0
132,0.0
133,21.911363450312923
415,0.0
2,1, 1, 1, 0, 4,48.00,49.00,Sunday
7,7.363333333333334
8,0.0
130,0.0
131,0.0
132,0.0
133,21.90776550915434
415,0.0
2,1, 1, 1, 0, 4,49.00,50.00,Sunday
7,7.366666666666667
8,0.0
130,0.0
131,0.0
132,0.0
133,21.904215386109392
415,0.0
2,1, 1, 1, 0, 4,50.00,51.00,Sunday
7,7.37
8,0.0
130,0.0
131,0.0
132,0.0
133,21.900711608179858
415,0.0
2,1, 1, 1, 0, 4,51.00,52.00,Sunday
7,7.373333333333334
8,0.0
130,0.0
131,0.0
132,0.0
133,21.897252829121644
415,0.0
2,1, 1, 1, 0, 4,52.00,53.00,Sunday
7,7.376666666666667
8,0.0
130,0.0
131,0.0
132,0.0
133,21.89383766565759
415,0.0
2,1, 1, 1, 0, 4,53.00,54.00,Sunday
7,7.38
8,0.0
130,0.0
131,0.0
132,0.0
133,21.89046483300505
415,0.0
2,1, 1, 1, 0, 4,54.00,55.00,Sunday
7,7.383333333333334
8,0.0
130,0.0
131,0.0
132,0.0
133,21.88713301882368
415,0.0
2,1, 1, 1, 0, 4,55.00,56.00,Sunday
7,7.386666666666667
8,0.0
130,0.0
131,0.0
132,0.0
133,21.88384100897371
415,0.0
2,1, 1, 1, 0, 4,56.00,57.00,Sunday
7,7.390000000000001
8,0.0
130,0.0
131,0.0
132,0.0
133,21.880587597094777
415,0.0
2,1, 1, 1, 0, 4,57.00,58.00,Sunday
7,7.3933333333333335
8,0.0
130,0.0
131,0.0
132,0.0
133,21.877371647865903
415,0.0
2,1, 1, 1, 0, 4,58.00,59.00,Sunday
7,7.3966666666666665
8,0.0
130,0.0
131,0.0
132,0.0
133,21.874191998537693
415,0.0
2,1, 1, 1, 0, 4,59.00,60.00,Sunday
7,7.4
8,0.0
130,0.0
131,0.0
132,0.0
133,21.87104757662537
415,0.0
2,1, 1, 1, 0, 5, 0.00, 1.00,Sunday
7,7.403333333333333
8,0.0
130,0.0
131,0.0
132,0.0
133,21.86793694877443
415,0.0
2,1, 1, 1, 0, 5, 1.00, 2.00,Sunday
7,7.406666666666666
8,0.0
130,0.0
131,0.0
132,0.0
133,21.864859150454524
415,0.0
2,1, 1, 1, 0, 5, 2.00, 3.00,Sunday
7,7.41
8,0.0
130,0.0
131,0.0
132,0.0
133,21.861813171763544
415,0.0
2,1, 1, 1, 0, 5, 3.00, 4.00,Sunday
7,7.413333333333334
8,0.0
130,0.0
131,0.0
132,0.0
133,21.85879807257556
415,0.0
2,1, 1, 1, 0, 5, 4.00, 5.00,Sunday
7,7.416666666666666
8,0.0
130,0.0
131,0.0
132,0.0
133,21.855812896223213
415,0.0
2,1, 1, 1, 0, 5, 5.00, 6.00,Sunday
7,7.42
8,0.0
130,0.0
131,0.0
132,0.0
133,21.852856757379772
415,0.0
2,1, 1, 1, 0, 5, 6.00, 7.00,Sunday
7,7.423333333333334
8,0.0
130,0.0
131,0.0
132,0.0
133,21.84992877855259
415,0.0
2,1, 1, 1, 0, 5, 7.00, 8.00,Sunday
7,7.426666666666668
8,0.0
130,0.0
131,0.0
132,0.0
133,21.84702814170403
415,0.0
2,1, 1, 1, 0, 5, 8.00, 9.00,Sunday
7,7.43
8,0.0
130,0.0
131,0.0
132,0.0
133,21.84415399816404
415,0.0
2,1, 1, 1, 0, 5, 9.00,10.00,Sunday
7,7.433333333333334
8,0.0
130,0.0
131,0.0
132,0.0
133,21.841305565848323
415,0.0
2,1, 1, 1, 0, 5,10.00,11.00,Sunday
7,7.436666666666667
8,0.0
130,0.0
131,0.0
132,0.0
133,21.838482048572832
415,0.0
2,1, 1, 1, 0, 5,11.00,12.00,Sunday
7,7.440000000000001
8,0.0
130,0.0
131,0.0
132,0.0
133,21.83568273806584
415,0.0
2,1, 1, 1, 0, 5,12.00,13.00,Sunday
7,7.443333333333333
8,0.0
130,0.0
131,0.0
132,0.0
133,21.83290689485752
415,0.0
2,1, 1, 1, 0, 5,13.00,14.00,Sunday
7,7.446666666666666
8,0.0
130,0.0
131,0.0
132,0.0
133,21.830153828392024
415,0.0